[Molden Format]
[Title]
Generated by Multiwfn  Date: 2024-06-21 Time: 22:54:26
[Atoms] AU
S       1  16     0.0000000     0.0000000     0.0000000
O       2   8     1.6401260     1.6401260     1.6401260
O       3   8    -1.6401260    -1.6401260     1.6401260
O       4   8    -1.6401260     1.6401260    -1.6401260
O       5   8     1.6401260    -1.6401260    -1.6401260
[GTO]
     1     0
s   6 1.0
  9.34134000E+04  7.42999957E-04
  1.39617000E+04  5.79299966E-03
  3.16991000E+03  2.99539983E-02
  9.02456000E+02  1.19027993E-01
  2.97158000E+02  3.68431979E-01
  1.08702000E+02  5.77298966E-01
s   3 1.0
  1.08702000E+02  1.43186060E-01
  4.31553000E+01  6.24465262E-01
  1.81079000E+01  2.83366119E-01
s   1 1.0
  5.56009000E+00  1.00000000E+00
s   1 1.0
  2.13183000E+00  1.00000000E+00
s   1 1.0
  4.20403000E-01  1.00000000E+00
s   1 1.0
  1.36045000E-01  1.00000000E+00
s   1 1.0
  4.05000000E-02  1.00000000E+00
p   1 1.0
  4.05000000E-02  1.00000000E+00
p   4 1.0
  4.95040000E+02  8.30900251E-03
  1.17221000E+02  6.40240194E-02
  3.77749000E+01  2.77614084E-01
  1.40584000E+01  7.45076225E-01
p   2 1.0
  5.56574000E+00  6.13711672E-01
  2.26297000E+00  4.43817763E-01
p   1 1.0
  8.07994000E-01  1.00000000E+00
p   1 1.0
  2.77460000E-01  1.00000000E+00
p   1 1.0
  7.71410000E-02  1.00000000E+00
d   1 1.0
  1.30000000E+00  1.00000000E+00
d   1 1.0
  3.25000000E-01  1.00000000E+00
 
     2     0
s   6 1.0
  8.58850000E+03  1.89515008E-03
  1.29723000E+03  1.43859006E-02
  2.99296000E+02  7.07320031E-02
  8.73771000E+01  2.40001011E-01
  2.56789000E+01  5.94797026E-01
  3.74004000E+00  2.80802012E-01
s   3 1.0
  4.21175000E+01  1.13889012E-01
  9.62837000E+00  9.20811101E-01
  2.85332000E+00 -3.27447036E-03
p   3 1.0
  4.21175000E+01  3.65113974E-02
  9.62837000E+00  2.37152983E-01
  2.85332000E+00  8.19701941E-01
s   1 1.0
  9.05661000E-01  1.00000000E+00
p   1 1.0
  9.05661000E-01  1.00000000E+00
s   1 1.0
  2.55611000E-01  1.00000000E+00
p   1 1.0
  2.55611000E-01  1.00000000E+00
s   1 1.0
  8.45000000E-02  1.00000000E+00
p   1 1.0
  8.45000000E-02  1.00000000E+00
d   1 1.0
  2.58400000E+00  1.00000000E+00
d   1 1.0
  6.46000000E-01  1.00000000E+00
 
     3     0
s   6 1.0
  8.58850000E+03  1.89515008E-03
  1.29723000E+03  1.43859006E-02
  2.99296000E+02  7.07320031E-02
  8.73771000E+01  2.40001011E-01
  2.56789000E+01  5.94797026E-01
  3.74004000E+00  2.80802012E-01
s   3 1.0
  4.21175000E+01  1.13889012E-01
  9.62837000E+00  9.20811101E-01
  2.85332000E+00 -3.27447036E-03
p   3 1.0
  4.21175000E+01  3.65113974E-02
  9.62837000E+00  2.37152983E-01
  2.85332000E+00  8.19701941E-01
s   1 1.0
  9.05661000E-01  1.00000000E+00
p   1 1.0
  9.05661000E-01  1.00000000E+00
s   1 1.0
  2.55611000E-01  1.00000000E+00
p   1 1.0
  2.55611000E-01  1.00000000E+00
s   1 1.0
  8.45000000E-02  1.00000000E+00
p   1 1.0
  8.45000000E-02  1.00000000E+00
d   1 1.0
  2.58400000E+00  1.00000000E+00
d   1 1.0
  6.46000000E-01  1.00000000E+00
 
     4     0
s   6 1.0
  8.58850000E+03  1.89515008E-03
  1.29723000E+03  1.43859006E-02
  2.99296000E+02  7.07320031E-02
  8.73771000E+01  2.40001011E-01
  2.56789000E+01  5.94797026E-01
  3.74004000E+00  2.80802012E-01
s   3 1.0
  4.21175000E+01  1.13889012E-01
  9.62837000E+00  9.20811101E-01
  2.85332000E+00 -3.27447036E-03
p   3 1.0
  4.21175000E+01  3.65113974E-02
  9.62837000E+00  2.37152983E-01
  2.85332000E+00  8.19701941E-01
s   1 1.0
  9.05661000E-01  1.00000000E+00
p   1 1.0
  9.05661000E-01  1.00000000E+00
s   1 1.0
  2.55611000E-01  1.00000000E+00
p   1 1.0
  2.55611000E-01  1.00000000E+00
s   1 1.0
  8.45000000E-02  1.00000000E+00
p   1 1.0
  8.45000000E-02  1.00000000E+00
d   1 1.0
  2.58400000E+00  1.00000000E+00
d   1 1.0
  6.46000000E-01  1.00000000E+00
 
     5     0
s   6 1.0
  8.58850000E+03  1.89515008E-03
  1.29723000E+03  1.43859006E-02
  2.99296000E+02  7.07320031E-02
  8.73771000E+01  2.40001011E-01
  2.56789000E+01  5.94797026E-01
  3.74004000E+00  2.80802012E-01
s   3 1.0
  4.21175000E+01  1.13889012E-01
  9.62837000E+00  9.20811101E-01
  2.85332000E+00 -3.27447036E-03
p   3 1.0
  4.21175000E+01  3.65113974E-02
  9.62837000E+00  2.37152983E-01
  2.85332000E+00  8.19701941E-01
s   1 1.0
  9.05661000E-01  1.00000000E+00
p   1 1.0
  9.05661000E-01  1.00000000E+00
s   1 1.0
  2.55611000E-01  1.00000000E+00
p   1 1.0
  2.55611000E-01  1.00000000E+00
s   1 1.0
  8.45000000E-02  1.00000000E+00
p   1 1.0
  8.45000000E-02  1.00000000E+00
d   1 1.0
  2.58400000E+00  1.00000000E+00
d   1 1.0
  6.46000000E-01  1.00000000E+00
 
 
[MO]
Ene=    -90.94348900
Spin= Alpha
Occup=  2.000000
     1      0.4210212030
     2      0.6842312010
     3     -0.0412784183
     4     -0.0591360407
     5     -0.0053590397
     6     -0.0048817704
     7     -0.0002256742
     8     -0.0000000144
     9      0.0000000034
    10     -0.0000000043
    11     -0.0000000768
    12      0.0000000326
    13     -0.0000000645
    14     -0.0000001453
    15      0.0000000622
    16     -0.0000001209
    17     -0.0000000239
    18      0.0000000002
    19     -0.0000000426
    20     -0.0000000354
    21     -0.0000000028
    22     -0.0000000511
    23     -0.0000000001
    24     -0.0000000004
    25     -0.0000000026
    26      0.0006951044
    27      0.0006951187
    28      0.0006950707
    29     -0.0000000012
    30     -0.0000000032
    31      0.0000000107
    32      0.0018112657
    33      0.0018112981
    34      0.0018111889
    35      0.0000000007
    36     -0.0000000046
    37      0.0000000163
    38      0.0000136632
    39      0.0000393300
    40      0.0000829571
    41      0.0000829694
    42      0.0000828674
    43     -0.0001678736
    44      0.0001459154
    45      0.0001459347
    46      0.0001457755
    47     -0.0000941443
    48      0.0001607061
    49      0.0001607129
    50      0.0001605745
    51      0.0004692724
    52     -0.0001155976
    53     -0.0001156012
    54     -0.0001156354
    55      0.0000099140
    56      0.0000099127
    57      0.0000099154
    58      0.0000029475
    59      0.0000029496
    60      0.0000029488
    61     -0.0000133415
    62     -0.0000133405
    63     -0.0000133305
    64     -0.0000285688
    65     -0.0000285640
    66     -0.0000285639
    67      0.0000136654
    68      0.0000393339
    69     -0.0000829821
    70     -0.0000829368
    71      0.0000828715
    72     -0.0001678872
    73     -0.0001459547
    74     -0.0001458847
    75      0.0001457822
    76     -0.0000941647
    77     -0.0001607454
    78     -0.0001606694
    79      0.0001605908
    80      0.0004692610
    81      0.0001155960
    82      0.0001156098
    83     -0.0001156300
    84      0.0000099126
    85      0.0000099131
    86      0.0000099154
    87      0.0000029475
    88     -0.0000029495
    89     -0.0000029494
    90     -0.0000133457
    91     -0.0000133372
    92     -0.0000133328
    93     -0.0000285692
    94      0.0000285673
    95      0.0000285630
    96      0.0000136637
    97      0.0000393287
    98     -0.0000829361
    99      0.0000829658
   100     -0.0000828683
   101     -0.0001678639
   102     -0.0001458822
   103      0.0001459284
   104     -0.0001457768
   105     -0.0000941654
   106     -0.0001606804
   107      0.0001607277
   108     -0.0001605862
   109      0.0004692506
   110      0.0001156104
   111     -0.0001155935
   112      0.0001156336
   113      0.0000099134
   114      0.0000099134
   115      0.0000099149
   116     -0.0000029486
   117      0.0000029499
   118     -0.0000029497
   119     -0.0000133377
   120     -0.0000133414
   121     -0.0000133318
   122      0.0000285680
   123     -0.0000285632
   124      0.0000285648
   125      0.0000136610
   126      0.0000393248
   127      0.0000828722
   128     -0.0000829776
   129     -0.0000828985
   130     -0.0001678523
   131      0.0001457818
   132     -0.0001459457
   133     -0.0001458226
   134     -0.0000941536
   135      0.0001605779
   136     -0.0001607397
   137     -0.0001606279
   138      0.0004692643
   139     -0.0001156282
   140      0.0001155895
   141      0.0001156235
   142      0.0000099147
   143      0.0000099132
   144      0.0000099145
   145     -0.0000029489
   146     -0.0000029502
   147      0.0000029493
   148     -0.0000133271
   149     -0.0000133421
   150     -0.0000133352
   151      0.0000285623
   152      0.0000285590
   153     -0.0000285662
Ene=    -19.78439640
Spin= Alpha
Occup=  2.000000
     1      0.0001080583
     2      0.0002336418
     3     -0.0003331812
     4     -0.0011221652
     5      0.0006917236
     6     -0.0037120605
     7      0.0001873076
     8     -0.0003028699
     9     -0.0003014125
    10      0.0002992079
    11      0.0006165801
    12      0.0006160846
    13     -0.0006153847
    14      0.0013379902
    15      0.0013369752
    16     -0.0013355444
    17     -0.0023482027
    18     -0.0023466614
    19      0.0023445515
    20      0.0004369983
    21      0.0004408359
    22     -0.0004463200
    23      0.0002744771
    24      0.0002744030
    25     -0.0002742741
    26      0.0000989744
    27      0.0000977571
    28      0.0000959047
    29      0.0014323175
    30     -0.0014307282
    31     -0.0014296967
    32     -0.0011019306
    33     -0.0011047019
    34     -0.0011089187
    35      0.0008271828
    36     -0.0008247435
    37     -0.0008231507
    38      0.0000734867
    39      0.0001452352
    40      0.0003567487
    41      0.0003564740
    42     -0.0001817434
    43     -0.0006166682
    44      0.0005573279
    45      0.0005568940
    46     -0.0001990918
    47      0.0009578288
    48      0.0001805035
    49      0.0001800741
    50     -0.0007026362
    51      0.0005843178
    52     -0.0003146096
    53     -0.0003152335
    54     -0.0001379425
    55     -0.0000101851
    56     -0.0000102105
    57     -0.0000005626
    58     -0.0000115138
    59     -0.0000293665
    60     -0.0000293564
    61     -0.0001371314
    62     -0.0001371654
    63     -0.0000092884
    64     -0.0001548301
    65     -0.0000254294
    66     -0.0000254658
    67     -0.5627351870
    68     -0.4929102970
    69     -0.0046827076
    70     -0.0046736426
    71      0.0046601057
    72      0.0705228110
    73     -0.0041664442
    74     -0.0041523545
    75      0.0041313157
    76      0.0553670210
    77     -0.0041574426
    78     -0.0041436647
    79      0.0041230919
    80      0.0055689791
    81     -0.0023180742
    82     -0.0023149045
    83      0.0023101717
    84      0.0013562062
    85      0.0013563521
    86      0.0013565697
    87      0.0000033290
    88     -0.0000034570
    89     -0.0000035429
    90      0.0044657797
    91      0.0044670362
    92      0.0044689052
    93      0.0010803836
    94     -0.0010813006
    95     -0.0010819157
    96      0.0000738446
    97      0.0001457211
    98      0.0001820681
    99      0.0003582998
   100     -0.0003578241
   101     -0.0006179810
   102      0.0001993679
   103      0.0005598817
   104     -0.0005591295
   105      0.0009548829
   106      0.0007039603
   107      0.0001853832
   108     -0.0001846670
   109      0.0005814913
   110      0.0001392151
   111     -0.0003136539
   112      0.0003146070
   113     -0.0000007478
   114     -0.0000101374
   115     -0.0000101724
   116      0.0000294094
   117     -0.0000293917
   118      0.0000113747
   119     -0.0000088915
   120     -0.0001377709
   121     -0.0001378129
   122      0.0000257305
   123     -0.0000257825
   124      0.0001555949
   125      0.0000737043
   126      0.0001455350
   127      0.0003578943
   128      0.0001818545
   129     -0.0003571062
   130     -0.0006174937
   131      0.0005592029
   132      0.0001991237
   133     -0.0005579582
   134      0.0009560900
   135      0.0001837469
   136      0.0007033147
   137     -0.0001825388
   138      0.0005826342
   139     -0.0003136527
   140      0.0001386805
   141      0.0003152462
   142     -0.0000101420
   143     -0.0000006742
   144     -0.0000102023
   145      0.0000294010
   146      0.0000114322
   147     -0.0000293732
   148     -0.0001375033
   149     -0.0000090623
   150     -0.0001375730
   151      0.0000255999
   152      0.0001552944
   153     -0.0000256853
Ene=    -19.78439250
Spin= Alpha
Occup=  2.000000
     1     -0.0001080587
     2     -0.0002336419
     3      0.0003331809
     4      0.0011221761
     5     -0.0006917589
     6      0.0037120844
     7     -0.0001873071
     8     -0.0003017875
     9     -0.0003026295
    10     -0.0002990415
    11      0.0006162205
    12      0.0006165096
    13      0.0006153380
    14      0.0013372536
    15      0.0013378464
    16      0.0013354505
    17     -0.0023470775
    18     -0.0023479850
    19     -0.0023444311
    20      0.0004398382
    21      0.0004376036
    22      0.0004466990
    23      0.0002744222
    24      0.0002744644
    25      0.0002742632
    26     -0.0000980750
    27     -0.0000987923
    28     -0.0000957709
    29     -0.0014324498
    30     -0.0014298806
    31     -0.0014304719
    32      0.0011039864
    33      0.0011023535
    34      0.0011092316
    35     -0.0008273773
    36     -0.0008234248
    37     -0.0008243410
    38      0.5627352250
    39      0.4929103990
    40     -0.0046760441
    41     -0.0046813084
    42     -0.0046590995
    43     -0.0705232587
    44     -0.0041560759
    45     -0.0041642585
    46     -0.0041297411
    47     -0.0553673386
    48     -0.0041473100
    49     -0.0041553063
    50     -0.0041215480
    51     -0.0055690147
    52     -0.0023157563
    53     -0.0023175975
    54     -0.0023098263
    55     -0.0013563201
    56     -0.0013562351
    57     -0.0013565917
    58     -0.0000033208
    59     -0.0000035307
    60     -0.0000034804
    61     -0.0044667276
    62     -0.0044659991
    63     -0.0044690701
    64     -0.0010803267
    65     -0.0010818321
    66     -0.0010814756
    67     -0.0000734724
    68     -0.0001452158
    69      0.0003564635
    70      0.0003566318
    71      0.0001817189
    72      0.0006166168
    73      0.0005568732
    74      0.0005571388
    75      0.0001990626
    76     -0.0009579591
    77      0.0001799517
    78      0.0001802099
    79      0.0007025595
    80     -0.0005844385
    81     -0.0003151432
    82     -0.0003147798
    83      0.0001378795
    84      0.0000102071
    85      0.0000101927
    86      0.0000005544
    87      0.0000115197
    88     -0.0000293568
    89     -0.0000293630
    90      0.0001371307
    91      0.0001371107
    92      0.0000093093
    93      0.0001547980
    94     -0.0000254460
    95     -0.0000254250
    96     -0.0000738196
    97     -0.0001456834
    98      0.0003582971
    99      0.0001820515
   100      0.0003576944
   101      0.0006178689
   102      0.0005598704
   103      0.0001993552
   104      0.0005589176
   105     -0.0009551150
   106      0.0001852178
   107      0.0007038944
   108      0.0001843045
   109     -0.0005816772
   110     -0.0003135798
   111      0.0001391357
   112     -0.0003147735
   113      0.0000101352
   114      0.0000007356
   115      0.0000101792
   116     -0.0000294098
   117      0.0000113837
   118     -0.0000293880
   119      0.0001377287
   120      0.0000089133
   121      0.0001377790
   122     -0.0000257063
   123      0.0001555518
   124     -0.0000257700
   125     -0.0000737474
   126     -0.0001455945
   127      0.0001819518
   128      0.0003581024
   129      0.0003572725
   130      0.0006176574
   131      0.0001992494
   132      0.0005595416
   133      0.0005582318
   134     -0.0009557704
   135      0.0007035547
   136      0.0001843296
   137      0.0001830606
   138     -0.0005823360
   139      0.0001388380
   140     -0.0003135659
   141     -0.0003151486
   142      0.0000006934
   143      0.0000101394
   144      0.0000101975
   145     -0.0000294053
   146     -0.0000293772
   147      0.0000114178
   148      0.0000090136
   149      0.0001375825
   150      0.0001376430
   151     -0.0000256338
   152     -0.0000257139
   153      0.0001553814
Ene=    -19.78438410
Spin= Alpha
Occup=  2.000000
     1     -0.0001080455
     2     -0.0002336059
     3      0.0003331040
     4      0.0011220184
     5     -0.0006913617
     6      0.0037121795
     7     -0.0001873329
     8      0.0003017360
     9     -0.0003028428
    10      0.0002988951
    11     -0.0006162094
    12      0.0006165604
    13     -0.0006153442
    14     -0.0013372328
    15      0.0013379498
    16     -0.0013354671
    17      0.0023470643
    18     -0.0023481120
    19      0.0023445112
    20     -0.0004399640
    21      0.0004372252
    22     -0.0004467982
    23     -0.0002744207
    24      0.0002744862
    25     -0.0002742427
    26     -0.0000980275
    27     -0.0000989479
    28     -0.0000956473
    29      0.0014326033
    30     -0.0014297310
    31      0.0014305310
    32      0.0011040991
    33      0.0011020037
    34      0.0011095175
    35      0.0008275826
    36     -0.0008231886
    37      0.0008244153
    38     -0.0000738535
    39     -0.0001457429
    40     -0.0003585431
    41      0.0001819796
    42     -0.0003578208
    43      0.0006180703
    44     -0.0005602718
    45      0.0001992195
    46     -0.0005591311
    47     -0.0009550007
    48     -0.0001856898
    49      0.0007038672
    50     -0.0001846022
    51     -0.0005815572
    52      0.0003134914
    53      0.0001392004
    54      0.0003147572
    55      0.0000101346
    56      0.0000007467
    57      0.0000101775
    58      0.0000294191
    59      0.0000113819
    60      0.0000293948
    61      0.0001377902
    62      0.0000089077
    63      0.0001378248
    64      0.0000257484
    65      0.0001556187
    66      0.0000258072
    67     -0.0000737410
    68     -0.0001455863
    69     -0.0001818523
    70      0.0003581365
    71     -0.0003572519
    72      0.0006176346
    73     -0.0001990931
    74      0.0005595984
    75     -0.0005581986
    76     -0.0009558821
    77     -0.0007034114
    78      0.0001843115
    79     -0.0001829872
    80     -0.0005824015
    81     -0.0001387986
    82     -0.0003135214
    83      0.0003152330
    84      0.0000006911
    85      0.0000101378
    86      0.0000101988
    87      0.0000294105
    88     -0.0000293777
    89     -0.0000114221
    90      0.0000090309
    91      0.0001375711
    92      0.0001376382
    93      0.0000256362
    94     -0.0000257266
    95     -0.0001553792
    96      0.5627353030
    97      0.4929106160
    98      0.0046757304
    99     -0.0046825637
   100      0.0046583253
   101     -0.0705242115
   102      0.0041555705
   103     -0.0041661903
   104      0.0041285219
   105     -0.0553680298
   106      0.0041468155
   107     -0.0041572117
   108      0.0041203461
   109     -0.0055690686
   110      0.0023156535
   111     -0.0023180474
   112      0.0023095602
   113     -0.0013563394
   114     -0.0013562305
   115     -0.0013566174
   116      0.0000033137
   117     -0.0000035407
   118      0.0000034768
   119     -0.0044668271
   120     -0.0044658813
   121     -0.0044692296
   122      0.0010802785
   123     -0.0010819224
   124      0.0010814584
   125     -0.0000734421
   126     -0.0001451633
   127     -0.0003563063
   128      0.0003566002
   129     -0.0001817211
   130      0.0006164375
   131     -0.0005566165
   132      0.0005570798
   133     -0.0001990779
   134     -0.0009581091
   135     -0.0001796307
   136      0.0001800853
   137     -0.0007025275
   138     -0.0005845424
   139      0.0003152567
   140     -0.0003147537
   141     -0.0001378373
   142      0.0000102083
   143      0.0000101907
   144      0.0000005470
   145     -0.0000115226
   146     -0.0000293532
   147      0.0000293620
   148      0.0001370891
   149      0.0001370786
   150      0.0000093166
   151     -0.0001547627
   152     -0.0000254281
   153      0.0000254068
Ene=    -19.78438330
Spin= Alpha
Occup=  2.000000
     1     -0.0001080511
     2     -0.0002336214
     3      0.0003331367
     4      0.0011220838
     5     -0.0006915054
     6      0.0037121670
     7     -0.0001873247
     8     -0.0002996508
     9      0.0003032614
    10      0.0003005949
    11      0.0006155748
    12     -0.0006166915
    13     -0.0006158029
    14      0.0013359383
    15     -0.0013382194
    16     -0.0013363992
    17     -0.0023452018
    18      0.0023485383
    19      0.0023457801
    20      0.0004449765
    21     -0.0004361593
    22     -0.0004430860
    23      0.0002742903
    24     -0.0002745096
    25     -0.0002743689
    26     -0.0000963088
    27     -0.0000993037
    28     -0.0000970163
    29      0.0014313302
    30      0.0014294363
    31     -0.0014320578
    32      0.0011080156
    33      0.0011011977
    34      0.0011064048
    35      0.0008256531
    36      0.0008227315
    37     -0.0008267447
    38     -0.0000735180
    39     -0.0001452661
    40      0.0001818436
    41     -0.0003570782
    42     -0.0003563835
    43      0.0006167139
    44      0.0001992241
    45     -0.0005578527
    46     -0.0005567592
    47     -0.0009574740
    48      0.0007028908
    49     -0.0001813422
    50     -0.0001802776
    51     -0.0005839616
    52      0.0001381144
    53      0.0003142352
    54      0.0003154487
    55      0.0000005855
    56      0.0000101694
    57      0.0000102123
    58      0.0000293750
    59      0.0000293537
    60      0.0000114923
    61      0.0000092230
    62      0.0001371984
    63      0.0001372365
    64      0.0000254441
    65      0.0000254996
    66      0.0001549162
    67     -0.0000738908
    68     -0.0001457907
    69      0.0003582309
    70     -0.0001820746
    71     -0.0003583317
    72      0.0006181910
    73      0.0005597841
    74     -0.0001993473
    75     -0.0005599490
    76     -0.0009546138
    77      0.0001855305
    78     -0.0007040860
    79     -0.0001856722
    80     -0.0005812226
    81     -0.0003142212
    82     -0.0001393523
    83      0.0003138696
    84      0.0000101584
    85      0.0000007676
    86      0.0000101441
    87      0.0000294044
    88     -0.0000113632
    89     -0.0000294119
    90      0.0001378840
    91      0.0000088535
    92      0.0001378617
    93      0.0000258128
    94     -0.0001556922
    95     -0.0000257863
    96     -0.0000736386
    97     -0.0001454563
    98      0.0003568536
    99     -0.0003576131
   100     -0.0001817331
   101      0.0006173134
   102      0.0005575398
   103     -0.0005587424
   104     -0.0001989797
   105     -0.0009567680
   106      0.0001815539
   107     -0.0001827007
   108     -0.0007029406
   109     -0.0005832980
   110     -0.0003154083
   111      0.0003138588
   112     -0.0001383840
   113      0.0000102129
   114      0.0000101555
   115      0.0000006315
   116     -0.0000114686
   117      0.0000293667
   118     -0.0000293955
   119      0.0001374371
   120      0.0001373706
   121      0.0000091688
   122     -0.0001551354
   123      0.0000256300
   124     -0.0000255451
   125      0.5627353080
   126      0.4929106330
   127     -0.0046631176
   128      0.0046851961
   129      0.0046684452
   130     -0.0705242928
   131     -0.0041359717
   132      0.0041702839
   133      0.0041442483
   134     -0.0553681487
   135     -0.0041276152
   136      0.0041611907
   137      0.0041357312
   138     -0.0055690854
   139     -0.0023112409
   140      0.0023189637
   141      0.0023130942
   142     -0.0013565431
   143     -0.0013561898
   144     -0.0013564587
   145      0.0000034051
   146      0.0000035640
   147     -0.0000033569
   148     -0.0044685728
   149     -0.0044655221
   150     -0.0044678400
   151      0.0010809560
   152      0.0010820909
   153     -0.0010805931
Ene=     -9.51023467
Spin= Alpha
Occup=  2.000000
     1     -0.0803712584
     2     -0.2648173510
     3      0.5491890620
     4      0.6051164320
     5     -0.0254303339
     6      0.0332350790
     7      0.0053841958
     8     -0.0000008102
     9      0.0000001981
    10     -0.0000004342
    11     -0.0000063423
    12      0.0000051636
    13     -0.0000202216
    14     -0.0000119708
    15      0.0000097945
    16     -0.0000383771
    17     -0.0000023619
    18      0.0000009009
    19     -0.0000030323
    20     -0.0000029944
    21      0.0000005529
    22     -0.0000009284
    23     -0.0000000806
    24      0.0000000529
    25     -0.0000001996
    26     -0.0023244699
    27     -0.0023233640
    28     -0.0023264933
    29      0.0000003145
    30     -0.0000001533
    31      0.0000004874
    32     -0.0137264107
    33     -0.0137238931
    34     -0.0137310170
    35      0.0000005175
    36     -0.0000002344
    37      0.0000008098
    38      0.0014240882
    39      0.0022776205
    40      0.0037695783
    41      0.0037711433
    42      0.0037645596
    43     -0.0060590814
    44      0.0062825021
    45      0.0062849622
    46      0.0062746959
    47     -0.0028239676
    48      0.0051676202
    49      0.0051691395
    50      0.0051601166
    51     -0.0040197596
    52      0.0009513234
    53      0.0009513633
    54      0.0009491852
    55     -0.0001457128
    56     -0.0001458130
    57     -0.0001456479
    58     -0.0002897446
    59     -0.0002896175
    60     -0.0002896827
    61     -0.0005877187
    62     -0.0005877761
    63     -0.0005871319
    64     -0.0010968015
    65     -0.0010964822
    66     -0.0010965231
    67      0.0014240785
    68      0.0022775252
    69     -0.0037715354
    70     -0.0037687009
    71      0.0037647063
    72     -0.0060585553
    73     -0.0062855492
    74     -0.0062811540
    75      0.0062749073
    76     -0.0028243370
    77     -0.0051706133
    78     -0.0051658501
    79      0.0051609377
    80     -0.0040203486
    81     -0.0009515905
    82     -0.0009507588
    83      0.0009494935
    84     -0.0001457884
    85     -0.0001457562
    86     -0.0001456233
    87     -0.0002897371
    88      0.0002896245
    89      0.0002896269
    90     -0.0005879845
    91     -0.0005874111
    92     -0.0005871813
    93     -0.0010967891
    94      0.0010966725
    95      0.0010963913
    96      0.0014242414
    97      0.0022777756
    98     -0.0037688503
    99      0.0037713026
   100     -0.0037648589
   101     -0.0060593587
   102     -0.0062813994
   103      0.0062852081
   104     -0.0062751684
   105     -0.0028251501
   106     -0.0051665723
   107      0.0051703865
   108     -0.0051612464
   109     -0.0040212227
   110     -0.0009506795
   111      0.0009519327
   112     -0.0009493424
   113     -0.0001457803
   114     -0.0001457917
   115     -0.0001456725
   116      0.0002897184
   117     -0.0002896115
   118      0.0002896337
   119     -0.0005876397
   120     -0.0005879306
   121     -0.0005872810
   122      0.0010968252
   123     -0.0010965198
   124      0.0010966532
   125      0.0014241094
   126      0.0022775990
   127      0.0037657846
   128     -0.0037725240
   129     -0.0037671291
   130     -0.0060588783
   131      0.0062766114
   132     -0.0062870933
   133     -0.0062786843
   134     -0.0028238162
   135      0.0051614422
   136     -0.0051717055
   137     -0.0051641256
   138     -0.0040201087
   139      0.0009497876
   140     -0.0009522878
   141     -0.0009499412
   142     -0.0001456930
   143     -0.0001457940
   144     -0.0001457004
   145      0.0002897209
   146      0.0002896253
   147     -0.0002896916
   148     -0.0005870962
   149     -0.0005880338
   150     -0.0005875417
   151      0.0010966113
   152      0.0010963876
   153     -0.0010968356
Ene=     -6.42750499
Spin= Alpha
Occup=  2.000000
     1     -0.0000043080
     2     -0.0000143101
     3      0.0000299481
     4      0.0000332037
     5     -0.0000024142
     6      0.0000016790
     7      0.0000003520
     8      0.0000000703
     9     -0.0000000850
    10      0.0004677129
    11      0.0000016965
    12      0.0000022909
    13      0.3789286610
    14      0.0000032622
    15      0.0000043240
    16      0.7200322420
    17     -0.0000006333
    18      0.0000008360
    19      0.0377426583
    20     -0.0000010837
    21      0.0000006178
    22     -0.0174407030
    23     -0.0000000506
    24      0.0000000745
    25      0.0033212365
    26     -0.0000001732
    27     -0.0000001134
    28     -0.0000001338
    29     -0.0019161777
    30      0.0000001527
    31     -0.0000001853
    32     -0.0000008299
    33     -0.0000006938
    34     -0.0000007403
    35     -0.0027700383
    36      0.0000001803
    37     -0.0000002135
    38      0.0008494852
    39      0.0014081587
    40      0.0021635367
    41      0.0021637814
    42      0.0008693707
    43     -0.0048652552
    44      0.0035198484
    45      0.0035202451
    46      0.0014288922
    47      0.0011176556
    48      0.0018135445
    49      0.0018138032
    50      0.0008235627
    51     -0.0017354397
    52      0.0009547828
    53      0.0009548522
    54      0.0000128831
    55     -0.0001540616
    56     -0.0001540760
    57     -0.0000915604
    58     -0.0001396697
    59     -0.0000778565
    60     -0.0000778692
    61     -0.0006269984
    62     -0.0006270456
    63     -0.0005673274
    64     -0.0002048566
    65     -0.0002793192
    66     -0.0002793292
    67      0.0008494481
    68      0.0014080850
    69     -0.0021635734
    70     -0.0021636318
    71      0.0008691906
    72     -0.0048649772
    73     -0.0035199114
    74     -0.0035199867
    75      0.0014285997
    76      0.0011176384
    77     -0.0018135506
    78     -0.0018137320
    79      0.0008233654
    80     -0.0017354446
    81     -0.0009547849
    82     -0.0009548341
    83      0.0000128364
    84     -0.0001540701
    85     -0.0001540610
    86     -0.0000915531